ITEM: TIMESTEP
0
ITEM: NUMBER OF ATOMS
200
ITEM: BOX BOUNDS
0 18.155
0 18.155
0 18.155
ITEM: ATOMS
1 1 16.7934 17.5477 7.70485
2 1 5.37413 4.95294 13.2719
3 1 15.8116 13.4204 5.53478
4 1 10.2919 4.98101 12.5453
5 1 3.03199 12.7842 2.27716
6 1 16.6684 14.2419 12.0864
7 1 4.02359 2.34556 14.7724
8 1 4.55455 14.6199 14.4958
9 1 11.0099 13.3508 16.5224
10 1 11.612 3.12989 15.7444
11 1 0.352776 13.7951 15.2468
12 1 10.9684 10.1726 8.57979
13 1 4.08694 12.3257 7.49655
14 1 9.53827 13.3753 6.07392
15 1 11.2661 7.56015 1.4516
16 1 16.6937 7.62165 1.22098
17 1 6.11551 17.4299 11.4727
18 1 10.5104 1.43814 15.6849
19 1 13.7134 2.99828 2.3009
20 1 14.8915 13.3565 14.5282
21 1 9.18493 3.48595 5.92387
22 1 14.1515 15.0716 17.0621
23 1 1.27917 13.6269 11.3326
24 1 3.73851 9.0468 13.021
25 1 5.97091 4.74875 9.02787
26 1 4.26201 3.11641 17.09
27 1 0.78238 8.01159 11.0499
28 1 1.63092 16.4104 6.75673
29 1 6.55951 15.0218 7.87126
30 1 1.09531 14.0518 11.2655
31 1 7.30062 8.6151 0.993038
32 1 3.75805 0.491469 0.354331
33 1 0.103011 6.51736 16.6873
34 1 15.3446 13.5773 8.68672
35 1 0.438597 16.2589 6.37993
36 1 9.8418 12.255 12.8364
37 1 9.12542 16.8465 13.282
38 1 1.20559 0.83968 2.09103
39 1 7.22756 0.569833 2.49291
40 1 2.16582 13.6601 14.7173
41 1 16.9591 12.9168 15.0946
42 1 14.143 8.31627 0.360081
43 1 12.5824 7.86698 16.5238
44 1 17.3411 10.1621 8.43501
45 1 7.96454 2.09086 12.8846
46 1 9.84434 0.791237 14.3194
47 1 17.6842 5.98968 12.5289
48 1 5.70544 5.59027 17.4896
49 1 12.4614 12.5388 11.6755
50 1 5.00503 13.5968 0.131388
51 1 5.92698 10.391 8.14854
52 1 17.5012 5.18255 5.14225
53 1 0.722181 16.5028 3.37438
54 1 14.6906 9.05056 16.0906
55 1 13.3072 3.13574 4.3176
56 1 7.5766 13.7703 1.50513
57 1 7.78461 12.8438 7.04931
58 1 15.6429 6.72404 13.5287
59 1 8.79028 6.56805 4.76829
60 1 15.7484 8.96048 3.17401
61 1 17.7929 14.2346 4.4926
62 1 1.83324 8.29053 12.2265
63 1 13.2828 4.8288 15.9283
64 1 5.30797 14.229 17.4411
65 1 6.5348 4.84043 17.0954
66 1 15.0411 17.1364 10.2166
67 1 8.69929 5.89339 7.77052
68 1 14.0822 14.1996 10.4228
69 1 0.493487 9.84737 5.89844
70 1 6.3153 9.2107 11.1111
71 1 10.0145 14.0484 0.574489
72 1 16.2214 0.461579 9.76445
73 1 9.55578 8.46682 4.19537
74 1 7.43156 8.59519 3.55372
75 1 10.9608 1.89121 5.07325
76 1 11.1221 1.44334 14.4563
77 1 13.0352 17.0979 0.669606
78 1 16.608 6.53767 16.0044
79 1 11.3145 3.74452 13.6601
80 1 6.42619 1.37166 16.6811
81 1 2.67074 4.81597 0.633433
82 1 8.49671 14.8678 10.6753
83 1 6.48028 4.64358 17.9222
84 1 5.97324 13.5977 2.68016
85 1 15.3365 9.75638 5.22379
86 1 9.31753 7.54452 16.3501
87 1 17.2633 14.904 14.3422
88 1 17.6273 4.94364 10.6846
89 1 8.44031 5.19852 13.415
90 1 10.2328 1.35363 7.9413
91 1 3.28417 4.9122 8.69964
92 1 16.3771 11.9889 5.91502
93 1 6.37229 1.20447 14.8224
94 1 13.9107 3.57762 3.24822
95 1 15.348 16.2862 2.75569
96 1 1.19735 11.6644 14.0081
97 1 7.56413 6.11601 8.48457
98 1 3.42734 5.07256 11.5854
99 1 13.3969 15.9136 14.2713
100 1 2.41131 14.6629 8.95278
101 1 4.30301 5.27581 7.97615
102 1 4.01146 2.39563 10.3495
103 1 5.48717 17.2053 7.00069
104 1 4.02643 15.8082 11.6915
105 1 8.786 11.1473 6.41941
106 1 10.9149 12.5547 11.5133
107 1 15.4427 10.6818 9.08219
108 1 11.0037 13.725 10.5559
109 1 3.63829 16.1634 15.0911
110 1 4.68818 13.9815 1.63936
111 1 0.427852 7.32206 12.3588
112 1 10.796 16.2576 10.0412
113 1 12.6172 4.20076 9.8668
114 1 9.9958 6.79767 0.151088
115 1 16.7204 15.0374 15.1888
116 1 15.6359 7.8574 12.6717
117 1 7.94709 15.3886 0.822501
118 1 9.58317 6.58481 13.0235
119 1 8.52493 15.136 11.072
120 1 15.3352 5.90891 10.5095
121 1 15.8873 1.28641 7.33845
122 1 15.1599 15.3838 15.6571
123 1 13.1261 11.9036 14.1134
124 1 8.9385 3.0575 18.038
125 1 3.56618 0.05411 9.85927
126 1 17.654 4.41884 0.701457
127 1 2.03094 6.65734 5.09133
128 1 17.9109 16.9343 3.47203
129 1 3.90711 17.2965 18.1386
130 1 15.3539 13.5672 0.600479
131 1 15.0701 0.713607 8.24234
132 1 0.928304 6.9383 6.91468
133 1 14.7399 16.6663 5.17811
134 1 15.6898 11.2171 7.15594
135 1 10.6408 1.28976 10.2973
136 1 1.0666 10.8039 3.11278
137 1 9.11639 9.38349 15.1524
138 1 13.8732 1.76791 5.30843
139 1 13.5944 15.1737 11.1991
140 1 6.41015 8.22161 8.46911
141 1 0.917172 14.6148 6.72553
142 1 16.5786 15.8764 14.0566
143 1 7.39722 2.27643 7.91187
144 1 8.79267 6.85014 1.30607
145 1 9.74008 10.8025 9.65999
146 1 9.37318 16.143 11.6259
147 1 8.03264 6.88846 6.09738
148 1 11.7285 7.13229 5.09814
149 1 17.8383 0.455253 12.1431
150 1 9.81873 3.20689 11.0367
151 1 17.6725 12.4635 8.75441
152 1 14.5405 8.83968 9.91102
153 1 15.5709 17.9933 9.78478
154 1 0.924073 3.07862 17.3331
155 1 13.2352 2.22794 3.28611
156 1 3.42388 6.74087 14.8248
157 1 5.62512 13.1392 3.03057
158 1 1.38036 3.20325 15.3399
159 1 8.95165 6.60869 5.86042
160 1 10.3401 7.73896 5.96541
161 1 16.6407 7.55891 10.6467
162 1 6.9878 5.71405 7.6721
163 1 6.22593 7.51215 7.51636
164 1 6.23611 2.63231 1.31821
165 1 6.00074 13.0485 3.85789
166 1 4.71702 8.52523 9.94742
167 1 14.3015 11.2296 12.7499
168 1 1.80301 2.07977 15.3965
169 1 12.551 10.1136 1.81683
170 1 1.76662 8.8264 1.16758
171 1 3.68509 8.05873 10.477
172 1 3.54868 16.4468 1.7604
173 1 11.3323 0.186657 16.5251
174 1 16.7241 13.0537 14.9485
175 1 0.523281 12.5505 0.389308
176 1 1.22756 17.4556 5.96177
177 1 2.78884 16.9931 4.79186
178 1 4.0938 1.51369 6.57138
179 1 2.28032 8.58198 15.237
180 1 7.09798 8.69604 3.95365
181 1 14.4948 6.03927 9.1421
182 1 8.94727 11.3375 5.83886
183 1 0.794933 11.6053 12.6592
184 1 2.63033 5.41643 2.56346
185 1 7.15858 15.4634 6.43777
186 1 8.65605 0.289318 13.6634
187 1 13.1162 3.96906 13.0316
188 1 12.8739 11.2256 4.87275
189 1 4.82781 15.8008 17.0717
190 1 1.52971 10.3662 10.6079
191 1 0.965467 17.8821 5.68249
192 1 13.8947 11.3077 10.4902
193 1 7.78989 3.21488 6.11274
194 1 9.88828 0.938244 3.7922
195 1 11.0006 16.9748 3.96148
196 1 10.073 11.0232 14.796
197 1 1.74357 4.6345 9.66535
198 1 13.7072 14.8868 16.2431
199 1 2.98819 14.7677 0.356787
200 1 13.4024 15.7946 0.847234
ITEM: TIMESTEP
1
ITEM: NUMBER OF ATOMS
200
ITEM: BOX BOUNDS
0 18.155
0 18.155
0 18.155
ITEM: ATOMS
1 1 16.8055 17.5265 7.69565
2 1 5.37287 4.95407 13.2746
3 1 15.7996 13.4654 5.53101
4 1 10.3104 4.95304 12.5132
5 1 3.02148 12.7716 2.29198
6 1 16.6689 14.2459 12.0836
7 1 4.03642 2.33362 14.7498
8 1 4.57552 14.5907 14.4684
9 1 11.0039 13.3531 16.5168
10 1 11.6358 3.14707 15.7631
11 1 0.387268 13.808 15.2697
12 1 10.9981 10.1553 8.55964
13 1 4.08524 12.3051 7.494
14 1 9.54975 13.3972 6.07384
15 1 11.3022 7.55818 1.46271
16 1 16.6904 7.62166 1.19644
17 1 6.12325 17.4244 11.4719
18 1 10.4979 1.43594 15.7254
19 1 13.7078 2.9763 2.25455
20 1 14.8476 13.3576 14.5212
21 1 9.22957 3.49493 5.91964
22 1 14.1588 15.0794 17.0971
23 1 1.28734 13.5877 11.3349
24 1 3.74609 9.06119 13.0377
25 1 5.96495 4.74331 9.05578
26 1 4.2622 3.12251 17.0996
27 1 0.780667 8.01819 11.0174
28 1 1.66848 16.4005 6.76178
29 1 6.54111 15.0195 7.91057
30 1 1.07409 14.0991 11.2668
31 1 7.29417 8.62897 1.00119
32 1 3.75003 0.545568 0.355691
33 1 0.143526 6.51392 16.694
34 1 15.348 13.5712 8.67688
35 1 0.396697 16.2422 6.36902
36 1 9.82802 12.2635 12.8819
37 1 9.13153 16.8122 13.308
38 1 1.20403 0.82866 2.096
39 1 7.24334 0.560141 2.49401
40 1 2.19879 13.6737 14.7218
41 1 16.9974 12.9089 15.1218
42 1 14.1376 8.30565 0.378985
43 1 12.5683 7.86105 16.542
44 1 17.3649 10.1608 8.42109
45 1 7.9679 2.11223 12.8763
46 1 9.82843 0.77336 14.3441
47 1 17.6574 5.94387 12.5416
48 1 5.6802 5.61219 17.4945
49 1 12.505 12.5417 11.6812
50 1 4.99693 13.5763 0.172342
51 1 5.9232 10.4055 8.14368
52 1 17.5019 5.17428 5.14548
53 1 0.75019 16.492 3.37916
54 1 14.696 9.06355 16.084
55 1 13.292 3.12818 4.35505
56 1 7.57883 13.73 1.51051
57 1 7.77731 12.8576 7.06728
58 1 15.6506 6.68295 13.5618
59 1 8.78797 6.55394 4.73007
60 1 15.7523 8.95076 3.16734
61 1 17.8047 14.2313 4.48719
62 1 1.86606 8.2982 12.2459
63 1 13.2719 4.83435 15.9216
64 1 5.32394 14.2461 17.4205
65 1 6.52436 4.85094 17.0519
66 1 15.0326 17.1119 10.2366
67 1 8.7312 5.88953 7.74507
68 1 14.0983 14.1731 10.406
69 1 0.503459 9.83709 5.8824
70 1 6.33085 9.21939 11.1245
71 1 10.0196 14.0486 0.576702
72 1 16.2479 0.482885 9.7595
73 1 9.57268 8.49302 4.1733
74 1 7.44507 8.60245 3.51721
75 1 10.976 1.91686 5.08579
76 1 11.1446 1.45679 14.4215
77 1 13.0305 17.1333 0.676043
78 1 16.5728 6.53773 15.9959
79 1 11.2892 3.71709 13.6793
80 1 6.43277 1.36971 16.7365
81 1 2.66806 4.81981 0.602896
82 1 8.49658 14.8497 10.6389
83 1 6.48516 4.64117 17.966
84 1 5.98961 13.6178 2.66129
85 1 15.3339 9.75585 5.23135
86 1 9.31292 7.51496 16.3471
87 1 17.2734 14.9016 14.3136
88 1 17.6307 4.94576 10.6786
89 1 8.40606 5.16677 13.4165
90 1 10.2398 1.35268 7.91532
91 1 3.25985 4.9024 8.73381
92 1 16.4166 11.9738 5.90681
93 1 6.37356 1.20827 14.7972
94 1 13.917 3.59339 3.26845
95 1 15.3449 16.275 2.76592
96 1 1.21183 11.6634 14.0678
97 1 7.57932 6.12589 8.51785
98 1 3.4258 5.0711 11.5803
99 1 13.3921 15.9316 14.2557
100 1 2.41546 14.6601 8.95824
101 1 4.32872 5.28281 7.95591
102 1 3.99156 2.39226 10.3317
103 1 5.47854 17.2049 7.00937
104 1 4.02769 15.8324 11.6754
105 1 8.7807 11.1325 6.46615
106 1 10.8983 12.5219 11.5256
107 1 15.4429 10.6728 9.10533
108 1 10.9927 13.7501 10.5278
109 1 3.61208 16.1897 15.09
110 1 4.64891 13.9889 1.67207
111 1 0.419952 7.32819 12.3834
112 1 10.8146 16.2583 10.0305
113 1 12.6047 4.18758 9.85121
114 1 10.0143 6.79511 0.118713
115 1 16.6953 15.0399 15.2254
116 1 15.6373 7.88829 12.6492
117 1 7.94941 15.4291 0.809217
118 1 9.58817 6.63374 13.0337
119 1 8.53078 15.1568 11.1073
120 1 15.3604 5.90653 10.548
121 1 15.912 1.29806 7.30358
122 1 15.1632 15.4149 15.6474
123 1 13.0988 11.9201 14.121
124 1 8.94844 3.06812 18.0458
125 1 3.55824 0.0600717 9.86952
126 1 17.6591 4.41516 0.711207
127 1 2.02817 6.66401 5.05542
128 1 17.8692 16.9486 3.47585
129 1 3.90377 17.2616 18.1283
130 1 15.3491 13.5665 0.603667
131 1 15.0572 0.70066 8.26414
132 1 0.928691 6.93119 6.92263
133 1 14.7457 16.6704 5.18793
134 1 15.6594 11.1904 7.20044
135 1 10.6385 1.28738 10.3009
136 1 1.07415 10.8031 3.11613
137 1 9.10174 9.34989 15.149
138 1 13.8874 1.74268 5.34093
139 1 13.5824 15.2002 11.2209
140 1 6.42593 8.25662 8.49803
141 1 0.928323 14.58 6.72854
142 1 16.5572 15.9256 14.0364
143 1 7.39168 2.25739 7.92834
144 1 8.7604 6.85009 1.33568
145 1 9.71993 10.8237 9.6769
146 1 9.39972 16.1712 11.6498
147 1 7.9947 6.89202 6.11277
148 1 11.7635 7.11096 5.0743
149 1 17.8563 0.456889 12.1552
150 1 9.80705 3.21305 11.0385
151 1 17.6719 12.4684 8.7458
152 1 14.545 8.82727 9.89982
153 1 15.543 17.9619 9.78995
154 1 0.920812 3.08002 17.3604
155 1 13.2261 2.19411 3.27714
156 1 3.43398 6.74099 14.8107
157 1 5.59999 13.1113 3.06368
158 1 1.37157 3.23962 15.3266
159 1 8.99778 6.59778 5.86993
160 1 10.3374 7.78181 5.99139
161 1 16.6571 7.58636 10.649
162 1 6.96501 5.69223 7.63158
163 1 6.20322 7.48699 7.48155
164 1 6.23175 2.62567 1.31815
165 1 6.01848 13.0578 3.89993
166 1 4.74091 8.54137 9.92704
167 1 14.3145 11.2244 12.7214
168 1 1.80612 2.04006 15.4063
169 1 12.5484 10.1199 1.80436
170 1 1.7401 8.82487 1.18256
171 1 3.65785 8.05714 10.4913
172 1 3.53127 16.4508 1.77705
173 1 11.3701 0.159437 16.5397
174 1 16.6931 13.0635 14.9206
175 1 0.534967 12.5435 0.393568
176 1 1.23567 17.4233 5.97797
177 1 2.81221 16.9927 4.77466
178 1 4.09696 1.50687 6.56563
179 1 2.26707 8.58595 15.2379
180 1 7.07722 8.69972 3.97261
181 1 14.4768 6.0446 9.11154
182 1 8.95075 11.339 5.79153
183 1 0.788305 11.6046 12.6215
184 1 2.62624 5.42319 2.58777
185 1 7.15703 15.4654 6.38415
186 1 8.61426 0.287718 13.6445
187 1 13.1513 3.98695 13.0215
188 1 12.8781 11.2406 4.88103
189 1 4.81926 15.8477 17.0683
190 1 1.51868 10.3728 10.5974
191 1 0.957074 17.9243 5.66471
192 1 13.878 11.3079 10.4776
193 1 7.74756 3.21409 6.10486
194 1 9.88645 0.937077 3.76888
195 1 11.0106 16.9704 3.98164
196 1 10.0865 11.0382 14.7943
197 1 1.71586 4.63394 9.67897
198 1 13.6829 14.8999 16.2013
199 1 2.9642 14.7566 0.351769
200 1 13.4024 15.7495 0.852523
