ITEM: TIMESTEP
0
ITEM: NUMBER OF ATOMS
200
ITEM: BOX BOUNDS
0 18.155
0 18.155
0 18.155
ITEM: ATOMS
1 1 4.06897 2.2653 7.80243
2 1 1.28061 6.58514 6.66827
3 1 14.9301 15.2785 8.75035
4 1 7.58946 16.7456 0.492079
5 1 9.50542 1.45515 16.4359
6 1 14.3747 1.1706 3.35393
7 1 17.3135 0.919122 9.878
8 1 13.6089 14.3153 6.87087
9 1 15.549 4.83217 8.86234
10 1 11.0446 10.5129 1.70691
11 1 8.42984 3.23218 0.928504
12 1 4.58209 1.53121 9.5693
13 1 10.7578 6.47797 15.7078
14 1 10.5815 17.277 9.92456
15 1 3.73388 6.22102 1.59977
16 1 13.363 11.5847 6.88054
17 1 4.75015 5.30021 6.00462
18 1 14.0246 1.14024 11.795
19 1 4.96532 0.836784 1.3368
20 1 3.22034 17.9044 15.1709
21 1 14.0655 8.45217 17.7257
22 1 16.3239 8.46744 6.82107
23 1 14.9132 3.28439 18.0104
24 1 3.07283 2.79002 12.4451
25 1 16.7588 12.0133 13.0695
26 1 14.0084 12.4686 2.52024
27 1 1.90555 14.7122 3.49537
28 1 5.642 11.2952 13.4971
29 1 5.79647 18.1327 3.66147
30 1 2.75963 14.2697 12.8652
31 1 12.8111 7.47344 6.62259
32 1 12.6349 7.79145 4.83195
33 1 11.3208 9.87565 11.3065
34 1 5.74637 0.894433 9.06446
35 1 4.97498 8.19293 1.80484
36 1 0.362621 2.72942 5.79819
37 1 5.99858 4.98765 15.3303
38 1 16.7322 7.10568 5.03927
39 1 2.35975 6.59203 1.82958
40 1 5.09078 8.53243 3.63548
41 1 13.6553 5.03757 10.1329
42 1 12.264 2.1784 11.8806
43 1 7.4701 8.56588 10.2084
44 1 12.7069 11.279 6.67043
45 1 14.6767 15.0729 17.5369
46 1 4.91821 16.6913 6.2559
47 1 11.1373 17.3595 16.3031
48 1 16.7257 12.3822 10.6342
49 1 17.3649 7.77353 15.4956
50 1 12.5136 10.4565 14.0659
51 1 15.5169 2.7549 17.8222
52 1 16.7546 12.6224 12.379
53 1 12.5428 8.05708 8.81102
54 1 15.0416 1.8263 14.6285
55 1 12.8159 6.79414 6.83956
56 1 16.7597 4.34997 14.6265
57 1 5.82944 12.7412 9.25148
58 1 7.47102 12.7893 12.6216
59 1 6.27363 10.9004 5.37034
60 1 11.5333 17.7967 7.95439
61 1 17.4928 17.568 17.9099
62 1 13.3218 10.8806 14.8055
63 1 12.0095 7.88255 8.23337
64 1 0.777274 0.568244 2.06482
65 1 0.426455 16.5511 8.10798
66 1 8.83209 3.93645 17.9157
67 1 4.36056 6.46443 2.40319
68 1 3.96231 12.8719 2.50215
69 1 14.7281 16.1038 3.00004
70 1 4.50045 5.87405 15.9719
71 1 0.369477 4.66025 17.9787
72 1 8.03374 14.4734 17.9165
73 1 14.2021 14.4198 16.8412
74 1 16.1625 12.8232 4.58931
75 1 10.266 17.52 10.338
76 1 5.28917 12.7541 10.2871
77 1 16.0485 8.32481 7.90039
78 1 0.869892 5.6592 1.82475
79 1 7.58492 12.8325 17.7443
80 1 9.87613 17.0034 11.1191
81 1 0.603391 15.7447 9.19639
82 1 10.2259 6.10909 14.134
83 1 9.95389 1.06144 6.21305
84 1 2.81881 14.233 11.8044
85 1 1.86722 14.1908 16.7191
86 1 1.5333 16.4581 11.0472
87 1 13.0723 1.89557 16.5145
88 1 11.2789 5.65206 12.91
89 1 15.3685 2.77975 13.6189
90 1 7.75283 1.92466 0.339444
91 1 7.96261 13.1406 8.20677
92 1 14.0224 1.92949 1.01884
93 1 2.72209 14.2302 0.800975
94 1 8.80475 6.98607 1.70692
95 1 15.3699 14.1529 9.96531
96 1 14.7765 13.3729 10.9043
97 1 4.61123 4.80517 17.3687
98 1 9.99151 7.95148 16.664
99 1 3.15651 5.61776 7.53798
100 1 13.329 8.2964 5.09024
101 1 11.4119 13.8787 0.260465
102 1 15.5633 13.9878 12.5261
103 1 14.5895 5.86934 4.22546
104 1 1.94257 6.31546 5.55386
105 1 6.43595 8.26708 2.68189
106 1 6.52301 3.32744 7.14311
107 1 9.75345 9.75077 13.3968
108 1 0.289834 17.6114 14.9894
109 1 7.0826 12.2389 12.8802
110 1 10.7985 0.034616 7.55844
111 1 4.58435 15.0078 10.0047
112 1 17.0134 2.48928 1.43221
113 1 13.426 7.10278 11.471
114 1 3.4423 11.449 6.22974
115 1 1.15081 13.0155 9.56341
116 1 17.0789 10.5351 11.1171
117 1 9.58137 9.07261 10.8926
118 1 14.8945 13.2944 0.737967
119 1 0.505898 14.5591 3.87397
120 1 1.40206 13.074 12.5555
121 1 17.2551 7.48673 12.5534
122 1 0.783163 8.64854 0.0857221
123 1 4.40305 11.5755 16.8587
124 1 3.75805 14.1429 10.3654
125 1 15.7168 0.680841 17.0132
126 1 16.6573 5.15043 16.8735
127 1 14.4835 10.6785 8.36494
128 1 11.4781 15.8794 5.6341
129 1 8.45836 15.2526 2.45441
130 1 9.22158 8.36488 2.40356
131 1 15.1842 1.85051 8.39911
132 1 7.71295 7.45437 1.08365
133 1 8.668 0.469966 14.1573
134 1 11.0612 11.9284 11.8166
135 1 14.7886 17.0579 0.707675
136 1 17.5695 17.1701 7.66033
137 1 10.4346 3.40828 12.1047
138 1 12.8074 11.1922 10.6705
139 1 15.5264 15.4046 17.2426
140 1 4.84041 11.4838 7.56489
141 1 9.57274 3.93308 15.5732
142 1 5.79754 9.98464 2.32633
143 1 13.7319 16.8139 18.1282
144 1 17.5987 17.6422 15.6451
145 1 6.43885 11.0752 16.7288
146 1 13.7125 0.285919 5.20896
147 1 8.26274 11.2088 16.165
148 1 15.769 15.8928 0.799986
149 1 10.9858 11.2511 4.43234
150 1 2.60157 15.8833 5.12804
151 1 5.50681 10.0091 0.4968
152 1 14.7136 11.574 14.4383
153 1 5.37777 3.7133 0.329077
154 1 5.15015 17.2836 11.9612
155 1 17.5526 17.3809 5.39829
156 1 14.4907 15.0697 10.3922
157 1 17.8397 4.27528 10.9722
158 1 14.6411 7.1121 6.35577
159 1 2.05808 17.7186 3.43628
160 1 0.859553 12.3785 13.7013
161 1 15.1036 10.0186 16.4848
162 1 12.978 0.315124 5.68101
163 1 16.2475 7.21301 5.67696
164 1 2.23811 16.7979 8.04872
165 1 5.52432 3.98746 0.236538
166 1 1.52394 8.65692 9.53701
167 1 16.8969 11.4222 7.81481
168 1 3.57279 8.37804 2.18201
169 1 8.17949 13.6433 11.6793
170 1 5.67379 14.3985 5.89299
171 1 16.3458 16.3198 16.1914
172 1 16.246 6.50727 9.23486
173 1 6.43684 13.5652 17.1443
174 1 3.87436 5.83379 5.53264
175 1 11.6503 6.41742 14.6155
176 1 7.39946 6.26303 4.9301
177 1 16.3313 6.56983 6.03927
178 1 15.9175 4.61606 6.48555
179 1 15.5105 16.9388 11.9822
180 1 0.238819 6.47076 9.23528
181 1 17.3992 2.68237 8.2237
182 1 1.8026 14.5593 11.2653
183 1 14.5534 17.2619 7.52699
184 1 10.9921 13.4159 3.72682
185 1 11.3607 10.3271 5.38297
186 1 10.0523 17.1117 1.89249
187 1 4.82652 9.3957 1.66106
188 1 11.4405 17.358 5.16322
189 1 6.64881 13.6635 8.09608
190 1 14.3888 1.68665 13.397
191 1 12.8364 7.32993 6.03816
192 1 6.15223 8.61345 2.10697
193 1 12.3269 1.32322 1.03445
194 1 4.56317 8.44273 4.37054
195 1 0.103578 6.9356 4.90877
196 1 12.7538 16.7145 17.6079
197 1 17.9918 1.84704 8.84273
198 1 15.7485 16.7072 11.2288
199 1 14.5539 10.0693 14.7992
200 1 2.07148 11.3442 12.4524
ITEM: TIMESTEP
1
ITEM: NUMBER OF ATOMS
200
ITEM: BOX BOUNDS
0 18.155
0 18.155
0 18.155
ITEM: ATOMS
1 1 4.06453 2.27663 7.76169
2 1 1.27232 6.59871 6.7064
3 1 14.9361 15.2863 8.70083
4 1 7.59477 16.7495 0.487771
5 1 9.51289 1.45769 16.4293
6 1 14.3921 1.17599 3.34799
7 1 17.3095 0.894719 9.9004
8 1 13.6018 14.331 6.87297
9 1 15.5266 4.79002 8.8595
10 1 11.0429 10.5459 1.70339
11 1 8.41413 3.23226 0.970395
12 1 4.54888 1.54318 9.59258
13 1 10.7503 6.48115 15.7379
14 1 10.6078 17.2718 9.87882
15 1 3.70876 6.21307 1.55769
16 1 13.4021 11.6048 6.88191
17 1 4.77644 5.28331 6.01609
18 1 14.0303 1.1352 11.7554
19 1 4.96982 0.843327 1.3423
20 1 3.2285 17.9162 15.1695
21 1 14.0597 8.42448 17.7374
22 1 16.3279 8.48201 6.77137
23 1 14.8769 3.31529 18.0277
24 1 3.05071 2.77826 12.4295
25 1 16.7632 11.9884 13.1003
26 1 13.9807 12.4754 2.53768
27 1 1.94591 14.7156 3.48784
28 1 5.6089 11.2818 13.5178
29 1 5.80254 18.1251 3.67305
30 1 2.75855 14.2806 12.9001
31 1 12.8153 7.49553 6.66069
32 1 12.5967 7.77112 4.83428
33 1 11.3399 9.87115 11.3344
34 1 5.77486 0.880111 9.04358
35 1 4.96331 8.15331 1.80021
36 1 0.350153 2.7266 5.79698
37 1 6.03492 4.98919 15.3247
38 1 16.7471 7.09547 5.00688
39 1 2.33134 6.59517 1.83401
40 1 5.1097 8.52946 3.58731
41 1 13.6529 5.04277 10.144
42 1 12.2427 2.18314 11.8826
43 1 7.45594 8.55918 10.206
44 1 12.6679 11.2702 6.66077
45 1 14.6404 15.0744 17.5636
46 1 4.91397 16.698 6.24909
47 1 11.1287 17.3641 16.2831
48 1 16.7242 12.3728 10.5865
49 1 17.37 7.76449 15.4896
50 1 12.4885 10.4327 14.0472
51 1 15.5403 2.72938 17.8096
52 1 16.7646 12.6453 12.3444
53 1 12.5737 8.06624 8.84463
54 1 15.0456 1.82305 14.6734
55 1 12.816 6.75684 6.84356
56 1 16.7546 4.34671 14.621
57 1 5.84234 12.7427 9.20325
58 1 7.49237 12.8121 12.6048
59 1 6.27664 10.8967 5.36428
60 1 11.5633 17.7699 7.96638
61 1 17.4962 17.574 17.9249
62 1 13.3348 10.903 14.8476
63 1 11.9777 7.8803 8.2017
64 1 0.762533 0.585263 2.05158
65 1 0.46918 16.553 8.10375
66 1 8.84186 3.94601 17.8699
67 1 4.37623 6.46686 2.43893
68 1 3.96881 12.8753 2.4944
69 1 14.7109 16.0867 3.01714
70 1 4.48893 5.90783 15.9441
71 1 0.38749 4.65671 17.9668
72 1 8.04071 14.515 17.9152
73 1 14.1836 14.4045 16.8223
74 1 16.156 12.8087 4.58599
75 1 10.2451 17.5329 10.3822
76 1 5.26953 12.7502 10.3361
77 1 16.0357 8.31396 7.94888
78 1 0.84511 5.63217 1.81943
79 1 7.60245 12.805 17.7587
80 1 9.86842 16.9887 11.1661
81 1 0.602365 15.7091 9.23365
82 1 10.1776 6.10966 14.1189
83 1 9.92689 1.07613 6.18625
84 1 2.82077 14.2265 11.7679
85 1 1.86016 14.192 16.6957
86 1 1.52714 16.4901 11.0548
87 1 13.0746 1.91637 16.5267
88 1 11.2937 5.6324 12.8754
89 1 15.3849 2.80195 13.6149
90 1 7.73197 1.89014 0.315923
91 1 8.01516 13.1337 8.21866
92 1 14.0458 1.93787 1.0337
93 1 2.71761 14.2211 0.800252
94 1 8.84517 6.97667 1.72792
95 1 15.4081 14.1403 9.93684
96 1 14.7606 13.3438 10.9279
97 1 4.58223 4.81905 17.3335
98 1 9.97301 7.97345 16.6781
99 1 3.14806 5.60704 7.56619
100 1 13.3606 8.32737 5.09594
101 1 11.4128 13.8705 0.251852
102 1 15.5503 14.0135 12.5412
103 1 14.5968 5.8688 4.21901
104 1 1.95462 6.31164 5.52292
105 1 6.4462 8.2483 2.72003
106 1 6.5239 3.3204 7.15261
107 1 9.7566 9.75835 13.4019
108 1 0.323444 17.6154 14.9736
109 1 7.05482 12.2094 12.8972
110 1 10.7645 0.0423813 7.52746
111 1 4.62548 15.0369 9.99921
112 1 17.0252 2.47893 1.42836
113 1 13.4313 7.10726 11.4716
114 1 3.41293 11.4432 6.21046
115 1 1.14076 12.9943 9.55556
116 1 17.0929 10.4905 11.1325
117 1 9.55596 9.04138 10.8849
118 1 14.9065 13.2994 0.72847
119 1 0.476024 14.5573 3.88037
120 1 1.4094 13.078 12.5195
121 1 17.2597 7.4828 12.549
122 1 0.783203 8.68392 0.0764883
123 1 4.3895 11.5846 16.8725
124 1 3.73511 14.1184 10.3647
125 1 15.7251 0.674711 17.0177
126 1 16.6504 5.16744 16.8734
127 1 14.5112 10.6808 8.38146
128 1 11.474 15.8383 5.64572
129 1 8.45523 15.2484 2.45131
130 1 9.22395 8.40055 2.41355
131 1 15.1817 1.84118 8.39662
132 1 7.67214 7.47274 1.06495
133 1 8.6607 0.466569 14.1552
134 1 11.0587 11.9581 11.8106
135 1 14.8185 17.0517 0.737495
136 1 17.5286 17.177 7.65346
137 1 10.403 3.40381 12.114
138 1 12.833 11.2071 10.6625
139 1 15.5784 15.4192 17.2345
140 1 4.86804 11.4776 7.57618
141 1 9.58361 3.91649 15.5871
142 1 5.83119 10.0159 2.34417
143 1 13.7683 16.8013 18.1343
144 1 17.5715 17.6342 15.669
145 1 6.40816 11.0764 16.7406
146 1 13.7486 0.290023 5.18586
147 1 8.29285 11.2098 16.1546
148 1 15.7976 15.8727 0.794282
149 1 10.969 11.2853 4.41304
150 1 2.59593 15.8943 5.13527
151 1 5.50909 10.0197 0.470822
152 1 14.7398 11.6145 14.4395
153 1 5.35972 3.67479 0.331815
154 1 5.14569 17.2808 11.9513
155 1 17.5397 17.3747 5.39683
156 1 14.4623 15.1027 10.414
157 1 17.8285 4.28688 10.9824
158 1 14.6314 7.11288 6.38533
159 1 2.06241 17.7177 3.46125
160 1 0.846663 12.359 13.7337
161 1 15.1122 10.0228 16.5309
162 1 12.9425 0.32241 5.69629
163 1 16.2503 7.26261 5.66402
164 1 2.27435 16.8075 8.04405
165 1 5.52767 4.02889 0.231249
166 1 1.53109 8.65931 9.52989
167 1 16.9023 11.4369 7.8184
168 1 3.52926 8.38469 2.19219
169 1 8.19811 13.6626 11.6515
170 1 5.67543 14.3838 5.90283
171 1 16.373 16.3398 16.1603
172 1 16.2546 6.53655 9.24499
173 1 6.40326 13.5981 17.1328
174 1 3.83933 5.84667 5.51285
175 1 11.6874 6.41181 14.5988
176 1 7.41058 6.25796 4.94872
177 1 16.3387 6.55104 6.05684
178 1 15.9155 4.58277 6.49008
179 1 15.5147 16.9438 12.0288
180 1 0.256035 6.46573 9.22675
181 1 17.3807 2.7193 8.2019
182 1 1.76409 14.5506 11.2556
183 1 14.5738 17.2596 7.52715
184 1 10.9896 13.4401 3.71421
185 1 11.3644 10.3085 5.41749
186 1 10.0494 17.0987 1.89965
187 1 4.82101 9.42342 1.66534
188 1 11.4381 17.3964 5.15729
189 1 6.61613 13.6824 8.08744
190 1 14.3649 1.68171 13.3699
191 1 12.8376 7.33406 6.0016
192 1 6.13369 8.64067 2.08849
193 1 12.2876 1.30918 1.02965
194 1 4.53412 8.44739 4.40283
195 1 0.13647 6.9427 4.91566
196 1 12.7193 16.7022 17.5954
197 1 18.0091 1.8242 8.85771
198 1 15.7632 16.7154 11.1887
199 1 14.5617 10.0372 14.7998
200 1 2.07867 11.3021 12.4415
