ITEM: TIMESTEP
0
ITEM: NUMBER OF ATOMS
200
ITEM: BOX BOUNDS
0 18.155
0 18.155
0 18.155
ITEM: ATOMS
1 1 14.174 10.8516 15.8134
2 1 1.54837 13.7765 13.1874
3 1 6.07456 9.20119 11.3786
4 1 16.4546 15.8032 7.46862
5 1 0.557319 9.2852 2.49415
6 1 5.15119 5.03969 8.7662
7 1 11.8557 6.76212 7.66466
8 1 13.6078 9.13141 1.10697
9 1 17.0079 10.3906 13.7145
10 1 14.0474 15.3486 10.195
11 1 18.0083 15.5444 16.7728
12 1 9.03046 7.95543 11.8147
13 1 17.1052 9.75869 10.6035
14 1 17.6133 14.1882 17.8271
15 1 6.79012 12.0727 9.64966
16 1 9.58156 16.2951 9.79284
17 1 5.55128 7.10649 8.44976
18 1 8.8392 8.30916 13.1029
19 1 9.98784 16.7846 12.2339
20 1 6.78296 11.748 1.96184
21 1 14.2372 14.4709 16.7527
22 1 11.9203 2.26642 16.1311
23 1 0.678499 6.63963 17.7906
24 1 11.0676 7.01108 13.4019
25 1 3.21492 4.74919 16.4674
26 1 16.9805 5.29865 14.1835
27 1 9.27415 0.223301 16.3117
28 1 6.93149 2.29942 13.3868
29 1 14.1129 3.53741 16.9467
30 1 4.85247 6.76404 9.97932
31 1 11.1362 10.4656 10.1231
32 1 17.691 10.6022 0.786293
33 1 14.6122 2.04093 13.7603
34 1 10.8242 4.2829 2.11164
35 1 0.518687 5.32798 8.9498
36 1 1.51827 6.53978 13.0774
37 1 17.1451 6.45043 17.9929
38 1 7.38143 0.0189245 1.76864
39 1 8.98067 3.77159 4.34774
40 1 17.2167 1.31807 1.48012
41 1 1.51895 16.7926 11.0343
42 1 6.96637 6.7847 4.89944
43 1 12.8832 16.042 13.9544
44 1 14.9491 10.4407 10.3763
45 1 15.1934 2.82372 0.385402
46 1 8.93027 6.91257 0.530774
47 1 4.40612 10.3413 17.3447
48 1 17.885 3.53439 5.28392
49 1 8.46037 12.4986 17.5863
50 1 3.15677 10.9063 5.70278
51 1 6.05812 16.7252 6.24154
52 1 16.9662 0.383487 12.0616
53 1 5.07325 15.85 4.94258
54 1 0.0195303 12.7607 6.00901
55 1 8.67127 6.8038 7.26077
56 1 0.107882 3.84704 12.89
57 1 11.4633 14.6371 4.3403
58 1 1.19097 6.31047 13.7703
59 1 13.577 2.94874 10.551
60 1 12.2231 6.58288 12.8781
61 1 17.9812 15.1882 11.0994
62 1 13.9349 2.1884 4.4317
63 1 1.70501 8.38961 13.718
64 1 0.27752 5.08324 12.1776
65 1 7.2225 7.92408 6.00098
66 1 16.1537 11.5746 7.9191
67 1 9.86192 5.51162 1.94758
68 1 5.36322 14.7289 16.1832
69 1 5.87658 9.02492 5.62584
70 1 10.4617 14.7779 14.1068
71 1 10.3566 14.8387 2.13202
72 1 4.66506 13.0913 0.583159
73 1 16.9415 0.747184 0.802822
74 1 9.26207 6.68833 14.083
75 1 3.02811 5.95167 12.6895
76 1 17.1321 4.61708 8.28229
77 1 7.89373 4.5521 15.4779
78 1 0.0893587 15.6002 10.6311
79 1 2.52145 3.14256 13.0562
80 1 6.43433 0.843563 1.60524
81 1 5.64519 0.957828 7.58679
82 1 4.45589 11.7442 9.15529
83 1 9.14945 1.27083 13.3896
84 1 7.0239 11.5366 3.29227
85 1 0.0253647 5.30982 8.18872
86 1 1.85823 7.918 4.09781
87 1 13.6617 2.73402 14.1237
88 1 17.3465 9.61812 13.1726
89 1 8.46162 9.3988 7.25186
90 1 15.8312 11.0759 3.93602
91 1 9.58873 15.6707 5.51257
92 1 11.9339 15.8805 3.39606
93 1 14.0576 15.8733 15.918
94 1 10.8312 9.2141 0.519265
95 1 12.7756 5.15971 8.58337
96 1 16.2864 8.62626 2.42763
97 1 2.16948 11.2777 14.0457
98 1 15.3801 13.5135 15.0626
99 1 10.1715 8.12951 13.6003
100 1 13.8079 6.73046 8.34814
101 1 13.2527 11.4312 3.50788
102 1 2.55838 15.9648 11.0174
103 1 8.67172 13.0207 14.8815
104 1 10.0573 11.387 5.49037
105 1 1.92833 2.38408 6.84332
106 1 16.8987 3.83306 12.7106
107 1 3.00109 0.332105 13.9535
108 1 11.599 9.10069 2.72773
109 1 8.83833 16.3126 12.1628
110 1 2.95419 14.1241 4.86308
111 1 12.8794 1.03692 0.991852
112 1 5.86062 17.5993 3.72373
113 1 16.746 10.3915 16.4714
114 1 9.83969 12.4533 14.0707
115 1 17.5816 1.83737 15.4791
116 1 2.4467 6.27937 10.7857
117 1 6.22424 12.014 14.1217
118 1 10.6461 17.8387 1.86738
119 1 13.6238 12.2158 10.4393
120 1 15.8023 3.11413 12.2411
121 1 12.4264 16.4353 14.7043
122 1 5.04177 15.759 15.4713
123 1 6.06383 0.0909585 5.05996
124 1 4.39662 10.6193 11.2023
125 1 6.48634 9.14215 4.36541
126 1 3.30746 11.9153 7.23332
127 1 7.25895 14.7775 5.87329
128 1 14.5156 17.9951 1.88305
129 1 10.5917 14.5991 4.48765
130 1 14.1051 8.25663 2.12797
131 1 15.8149 16.655 5.33153
132 1 12.0748 17.3754 1.25102
133 1 7.58435 8.4394 15.627
134 1 12.1717 8.68644 17.2011
135 1 3.5268 9.6017 6.14067
136 1 17.7612 10.806 15.9557
137 1 9.43074 17.1797 7.72815
138 1 14.4892 7.54564 0.986158
139 1 14.5812 13.9265 11.1037
140 1 2.62951 5.8214 14.508
141 1 7.88696 15.7794 2.619
142 1 11.0433 13.8652 11.5733
143 1 7.67553 15.0397 3.00149
144 1 4.75927 10.6565 14.1146
145 1 15.9576 8.23428 7.0494
146 1 9.53909 6.96992 17.0089
147 1 5.45688 14.8202 3.49541
148 1 1.85813 8.28371 11.9037
149 1 12.396 0.035467 14.036
150 1 12.4433 16.3646 5.80211
151 1 11.7305 10.6997 5.43792
152 1 10.8677 1.51523 12.7268
153 1 1.24348 13.4475 2.5523
154 1 14.7566 10.7912 11.9521
155 1 10.4988 12.7655 13.6843
156 1 5.87002 6.20551 13.797
157 1 6.74515 14.5457 18.0455
158 1 16.8155 4.41993 0.0192869
159 1 2.77748 15.3423 10.3415
160 1 9.9063 9.52807 1.13836
161 1 10.3298 12.383 12.4874
162 1 6.39991 12.123 16.8594
163 1 3.6158 3.19205 12.705
164 1 1.17938 3.33358 11.3279
165 1 10.2638 9.06617 14.9297
166 1 4.83495 15.5932 8.26442
167 1 9.12619 15.2088 7.84895
168 1 4.12969 2.91519 15.2262
169 1 13.6273 17.5025 16.3674
170 1 17.193 16.8997 2.81089
171 1 9.11105 16.2064 0.74252
172 1 1.37292 11.423 17.6183
173 1 1.68834 1.43264 15.9908
174 1 8.84932 8.43182 16.0961
175 1 4.67081 9.69138 6.69677
176 1 13.9158 13.9003 7.34871
177 1 4.54697 3.42997 17.1299
178 1 11.3035 11.1616 6.71717
179 1 10.1823 12.2784 11.6405
180 1 11.1144 13.1319 12.6597
181 1 15.171 2.18316 5.35624
182 1 3.85569 10.9026 5.39249
183 1 6.65714 0.572401 2.3694
184 1 1.01393 9.08969 8.2445
185 1 3.71745 5.69621 16.2339
186 1 14.7004 11.1231 14.353
187 1 5.04391 1.34896 5.86203
188 1 5.25295 4.06111 4.23994
189 1 5.7949 6.92789 10.8502
190 1 15.0418 8.62535 6.03053
191 1 10.9612 1.11594 17.2183
192 1 14.9769 17.9147 0.187315
193 1 12.3787 17.1296 11.6125
194 1 10.1513 2.79273 17.7023
195 1 2.3048 3.19801 15.723
196 1 11.8769 7.24241 6.9217
197 1 0.922268 3.25444 1.42817
198 1 14.7537 2.48908 7.10138
199 1 1.69858 14.0551 3.11991
200 1 8.53436 4.09606 10.7153
ITEM: TIMESTEP
1
ITEM: NUMBER OF ATOMS
200
ITEM: BOX BOUNDS
0 18.155
0 18.155
0 18.155
ITEM: ATOMS
1 1 14.1612 10.838 15.8482
2 1 1.55163 13.7811 13.1832
3 1 6.09461 9.19309 11.3702
4 1 16.4437 15.8275 7.4728
5 1 0.560084 9.30518 2.47335
6 1 5.14876 5.01217 8.75775
7 1 11.8612 6.72884 7.70793
8 1 13.6049 9.15988 1.05839
9 1 16.9945 10.4201 13.7254
10 1 14.0498 15.3755 10.1812
11 1 18.0122 15.5722 16.7599
12 1 9.04064 7.95135 11.7772
13 1 17.1042 9.76481 10.5843
14 1 17.6066 14.1569 17.8383
15 1 6.79761 12.0775 9.65633
16 1 9.58002 16.2909 9.80972
17 1 5.55996 7.10623 8.40746
18 1 8.80282 8.31797 13.1244
19 1 10.0148 16.8022 12.2211
20 1 6.79182 11.7542 1.92655
21 1 14.2363 14.429 16.7797
22 1 11.9326 2.30463 16.1313
23 1 0.716309 6.65167 17.7886
24 1 11.0347 7.01281 13.4281
25 1 3.21714 4.69685 16.4709
26 1 16.9868 5.31215 14.2061
27 1 9.25205 0.194693 16.2941
28 1 6.93759 2.27195 13.3999
29 1 14.1107 3.54963 16.9344
30 1 4.83035 6.75832 9.948
31 1 11.1346 10.4732 10.1105
32 1 17.7002 10.6202 0.77075
33 1 14.643 2.01005 13.7503
34 1 10.8434 4.25962 2.10334
35 1 0.532447 5.33448 8.98313
36 1 1.5247 6.55294 13.0438
37 1 17.1022 6.44414 17.9911
38 1 7.41316 -0.00221357 1.74647
39 1 8.98095 3.7817 4.34822
40 1 17.2365 1.33796 1.49498
41 1 1.49295 16.8163 11.0327
42 1 6.9678 6.76017 4.87832
43 1 12.8966 16.0348 13.9167
44 1 14.9496 10.4377 10.3462
45 1 15.1993 2.82431 0.411889
46 1 8.92037 6.91645 0.571944
47 1 4.41072 10.3324 17.3633
48 1 17.8786 3.54555 5.27313
49 1 8.46683 12.494 17.602
50 1 3.11574 10.9045 5.71704
51 1 6.07816 16.7401 6.28687
52 1 16.9762 0.376465 12.0717
53 1 5.03854 15.8572 4.95599
54 1 0.0293611 12.774 6.01941
55 1 8.68391 6.79577 7.25991
56 1 0.157389 3.83269 12.9197
57 1 11.5168 14.6291 4.33782
58 1 1.16508 6.30074 13.8044
59 1 13.5748 2.95681 10.5691
60 1 12.2568 6.56813 12.8708
61 1 17.9648 15.1691 11.1205
62 1 13.8922 2.16906 4.39818
63 1 1.71044 8.40307 13.7586
64 1 0.293191 5.12216 12.1569
65 1 7.23681 7.92583 6.03676
66 1 16.1623 11.5491 7.91853
67 1 9.85806 5.5508 1.94694
68 1 5.37162 14.7048 16.2017
69 1 5.83833 9.02172 5.66559
70 1 10.4725 14.8096 14.1093
71 1 10.3571 14.8139 2.11559
72 1 4.67443 13.0969 0.585096
73 1 16.9231 0.715424 0.769719
74 1 9.22899 6.65307 14.0956
75 1 3.06539 5.94724 12.6841
76 1 17.1034 4.61301 8.28253
77 1 7.88649 4.54832 15.4783
78 1 0.10197 15.6243 10.5946
79 1 2.47785 3.14359 13.0519
80 1 6.41446 0.848475 1.55747
81 1 5.64125 0.952794 7.62955
82 1 4.47199 11.7479 9.15431
83 1 9.12629 1.27745 13.3986
84 1 7.0214 11.5393 3.32761
85 1 0.00401024 5.3088 8.15931
86 1 1.8624 7.93147 4.09451
87 1 13.6381 2.74939 14.1311
88 1 17.3597 9.5926 13.1481
89 1 8.46756 9.39542 7.25965
90 1 15.8424 11.073 3.95017
91 1 9.55048 15.6956 5.52275
92 1 11.9292 15.9031 3.37283
93 1 14.0585 15.8859 15.8878
94 1 10.8578 9.20412 0.504551
95 1 12.7729 5.12283 8.5966
96 1 16.3068 8.63666 2.43338
97 1 2.16917 11.2897 14.05
98 1 15.3874 13.5159 15.0502
99 1 10.1869 8.17354 13.6198
100 1 13.8326 6.74165 8.35098
101 1 13.2513 11.4367 3.50145
102 1 2.55698 15.9883 11.0466
103 1 8.63799 13.0455 14.8966
104 1 10.0142 11.3997 5.479
105 1 1.92341 2.39759 6.83294
106 1 16.8861 3.86779 12.7245
107 1 2.9937 0.319563 13.9688
108 1 11.597 9.09521 2.73948
109 1 8.80661 16.2979 12.1548
110 1 2.97378 14.1227 4.8769
111 1 12.8882 1.05975 0.998207
112 1 5.86298 17.5844 3.69471
113 1 16.7071 10.3795 16.484
114 1 9.80906 12.452 14.0882
115 1 17.5792 1.83751 15.4709
116 1 2.4385 6.26964 10.7582
117 1 6.23579 12.0357 14.1166
118 1 10.6086 17.8558 1.87614
119 1 13.6112 12.2167 10.4372
120 1 15.7736 3.08503 12.2314
121 1 12.4057 16.4441 14.7485
122 1 5.04554 15.7997 15.4587
123 1 6.06162 0.102465 5.10041
124 1 4.38378 10.6184 11.1994
125 1 6.50417 9.1539 4.33886
126 1 3.31481 11.9355 7.26809
127 1 7.26314 14.7701 5.90501
128 1 14.5246 17.9924 1.92688
129 1 10.5512 14.5872 4.49142
130 1 14.0987 8.25708 2.17529
131 1 15.803 16.6724 5.33497
132 1 12.1208 17.3614 1.22585
133 1 7.55179 8.44182 15.6054
134 1 12.1909 8.66985 17.1876
135 1 3.4919 9.57702 6.13826
136 1 17.7994 10.8143 15.933
137 1 9.43505 17.1973 7.71891
138 1 14.501 7.52972 0.961028
139 1 14.5915 13.9016 11.1339
140 1 2.64952 5.80853 14.5274
141 1 7.90358 15.8267 2.59928
142 1 11.0448 13.8895 11.5253
143 1 7.6732 15.0042 3.021
144 1 4.7349 10.6389 14.1072
145 1 15.9853 8.23873 7.08206
146 1 9.55417 6.94848 16.9849
147 1 5.45539 14.8114 3.45099
148 1 1.85147 8.28435 11.8601
149 1 12.3994 0.0763863 14.0157
150 1 12.4386 16.3513 5.7999
151 1 11.7542 10.6911 5.40479
152 1 10.9047 1.5201 12.7138
153 1 1.23578 13.42 2.52526
154 1 14.7483 10.7943 11.9978
155 1 10.5367 12.7884 13.6767
156 1 5.88064 6.19082 13.791
157 1 6.7336 14.5468 18.063
158 1 16.8232 4.40025 0.0154231
159 1 2.78841 15.3157 10.3043
160 1 9.86553 9.54457 1.16236
161 1 10.3326 12.3802 12.5348
162 1 6.38646 12.1066 16.8555
163 1 3.65227 3.20617 12.6929
164 1 1.19838 3.33335 11.2814
165 1 10.2717 9.08392 14.9695
166 1 4.84555 15.6012 8.26857
167 1 9.12848 15.1827 7.83959
168 1 4.14555 2.90019 15.2032
169 1 13.6219 17.5429 16.3791
170 1 17.1797 16.9083 2.81805
171 1 9.118 16.215 0.719089
172 1 1.37958 11.4257 17.615
173 1 1.6902 1.39322 16.0053
174 1 8.88398 8.42039 16.1065
175 1 4.71129 9.69159 6.70678
176 1 13.9084 13.8886 7.33364
177 1 4.57686 3.41692 17.1546
178 1 11.2923 11.1744 6.74995
179 1 10.186 12.2842 11.5981
180 1 11.1434 13.1596 12.66
181 1 15.2245 2.16815 5.37992
182 1 3.90973 10.8934 5.38774
183 1 6.66167 0.582479 2.41119
184 1 1.01445 9.09635 8.25226
185 1 3.74093 5.72848 16.2403
186 1 14.7094 11.1321 14.3002
187 1 5.01401 1.36866 5.86521
188 1 5.27371 4.05724 4.23447
189 1 5.83346 6.92814 10.8803
190 1 15.0161 8.63521 5.99716
191 1 10.9571 1.07749 17.2228
192 1 14.9912 17.9247 0.14124
193 1 12.3831 17.1464 11.6075
194 1 10.1416 2.82599 17.6975
195 1 2.25949 3.21431 15.6986
196 1 11.8766 7.24904 6.88047
197 1 0.924225 3.25843 1.42706
198 1 14.7377 2.50008 7.14683
199 1 1.71009 14.088 3.14756
200 1 8.53459 4.08917 10.7236
