ITEM: TIMESTEP
0
ITEM: NUMBER OF ATOMS
200
ITEM: BOX BOUNDS
0 18.155
0 18.155
0 18.155
ITEM: ATOMS
1 1 9.12742 14.4168 14.2637
2 1 10.031 4.06504 2.49747
3 1 2.19551 0.922233 13.0996
4 1 14.385 11.2792 17.238
5 1 10.5629 5.27193 0.450839
6 1 13.9971 11.224 9.91724
7 1 0.717016 17.7422 17.3518
8 1 13.0672 15.4934 11.1518
9 1 13.9377 2.32892 4.05935
10 1 16.0262 9.37564 1.98991
11 1 1.44832 13.1284 16.0126
12 1 15.6897 4.14706 7.92527
13 1 2.99391 12.5603 6.91772
14 1 8.47158 10.4492 4.92433
15 1 2.3322 7.07052 10.3408
16 1 8.19483 4.06933 0.899598
17 1 16.9011 10.4965 13.5257
18 1 8.39574 9.94891 1.76451
19 1 17.6488 14.154 16.5592
20 1 16.729 5.88399 14.2948
21 1 17.6586 7.79026 12.1595
22 1 4.628 3.93583 6.35487
23 1 14.9058 3.49242 13.0862
24 1 10.411 9.9278 10.3244
25 1 11.1712 8.37556 4.21648
26 1 8.9561 3.11826 13.7289
27 1 11.658 17.9387 3.92473
28 1 5.48541 10.1422 13.2359
29 1 2.48636 11.8131 0.968875
30 1 11.3846 11.7539 15.9472
31 1 11.1744 17.6565 17.6291
32 1 14.6617 16.6988 0.124836
33 1 11.9082 12.1117 2.85404
34 1 1.38469 5.07657 8.49548
35 1 7.39663 17.1174 6.57175
36 1 8.0403 16.4085 14.8681
37 1 17.4332 5.83574 13.1852
38 1 5.17457 4.97507 8.09179
39 1 3.12035 0.00206726 8.31614
40 1 15.6528 6.08421 3.81099
41 1 12.6017 2.79418 0.638388
42 1 11.7015 5.33446 1.43232
43 1 2.92775 12.2088 1.80381
44 1 14.3312 10.7026 6.40522
45 1 14.4507 5.82224 4.75357
46 1 16.9052 0.510345 2.05046
47 1 10.1155 2.48429 3.49694
48 1 3.47106 5.30042 7.9429
49 1 3.34549 8.38026 17.0181
50 1 5.92767 9.32725 15.2665
51 1 15.3521 17.8543 10.3078
52 1 6.67786 8.83711 16.8264
53 1 12.1998 1.57439 12.3638
54 1 7.8216 7.52996 14.3581
55 1 4.75255 14.9489 2.3388
56 1 9.7141 18.0292 15.1872
57 1 4.74629 12.8951 1.13897
58 1 2.38847 6.32558 8.97274
59 1 6.6139 12.9024 10.6414
60 1 12.1156 2.86436 6.66312
61 1 7.38756 1.35336 18.0001
62 1 12.1372 6.80124 14.4996
63 1 1.65267 17.6569 3.48344
64 1 13.1945 17.031 3.47817
65 1 15.4592 15.3754 1.34532
66 1 1.10847 15.3005 14.4827
67 1 1.32899 8.59812 15.8939
68 1 4.90257 3.06332 2.66414
69 1 7.87893 13.9988 18.0093
70 1 16.3256 18.0316 12.4926
71 1 15.1737 12.6979 16.246
72 1 17.3243 8.94559 4.05179
73 1 17.0539 7.53213 13.6036
74 1 1.23033 12.5686 3.54647
75 1 13.8582 14.3032 15.1562
76 1 14.3914 17.4802 3.66145
77 1 1.09381 10.7702 13.0481
78 1 12.4707 12.2389 8.52681
79 1 9.64444 12.8446 3.2624
80 1 0.675744 3.19164 2.74945
81 1 15.6007 12.2756 4.05329
82 1 2.25311 0.625871 13.4846
83 1 7.77499 1.15599 0.219243
84 1 5.10892 1.78332 11.6391
85 1 13.3889 8.71385 13.705
86 1 3.42318 10.8186 12.6915
87 1 11.1747 13.1893 10.7363
88 1 17.3336 13.134 15.2822
89 1 15.0469 2.89813 8.64465
90 1 13.9929 16.6984 13.6161
91 1 14.4318 15.8979 7.31289
92 1 8.49463 17.602 0.929569
93 1 8.3126 5.14435 0.598157
94 1 11.733 3.57277 4.78865
95 1 10.6418 6.05951 0.0338168
96 1 13.8696 17.4918 15.1118
97 1 11.6349 6.74631 4.19997
98 1 7.42456 2.13232 7.7306
99 1 6.47266 17.8578 4.96268
100 1 13.7137 2.8061 17.8513
101 1 5.17195 2.63064 0.557833
102 1 6.64125 1.53616 15.1497
103 1 0.997301 7.32938 8.68003
104 1 17.9905 4.08643 13.8619
105 1 1.05658 4.4284 8.98935
106 1 3.31179 15.2012 5.40339
107 1 8.80952 15.3441 16.0905
108 1 13.086 11.1868 17.0021
109 1 8.44411 11.8012 15.3401
110 1 0.671634 6.95848 2.45233
111 1 18.0873 0.983221 14.6193
112 1 0.76269 7.64658 7.86589
113 1 3.73207 6.21335 15.2252
114 1 14.877 16.8233 12.0884
115 1 6.30225 14.4459 8.81086
116 1 9.269 14.3928 3.28519
117 1 17.4415 12.8265 2.51774
118 1 4.29104 6.75521 0.353764
119 1 17.9191 4.18873 6.16632
120 1 17.9502 17.1497 11.8253
121 1 11.4176 12.939 10.2592
122 1 11.958 1.16714 10.1531
123 1 7.55964 4.76573 13.7726
124 1 17.8754 7.074 11.9161
125 1 6.11691 14.138 12.8264
126 1 11.7994 6.33078 10.833
127 1 17.2381 4.25539 5.63485
128 1 15.5449 1.67696 13.2882
129 1 9.18973 5.14831 8.87901
130 1 2.66133 17.7506 15.6485
131 1 0.306256 17.1214 10.5958
132 1 15.5048 7.80305 4.90729
133 1 5.97147 10.3192 1.61951
134 1 15.1664 2.93822 3.55981
135 1 4.2021 13.1861 7.19165
136 1 5.12784 2.61408 11.622
137 1 9.31905 12.7707 13.4647
138 1 3.50499 0.199599 1.50116
139 1 11.519 12.4513 2.34318
140 1 12.9094 4.15496 14.4149
141 1 4.1816 15.3954 3.14621
142 1 16.7611 14.9371 3.51419
143 1 7.71396 11.0858 6.94639
144 1 7.69852 9.18535 12.8638
145 1 1.51395 4.46737 8.94567
146 1 2.12987 15.3453 0.175805
147 1 1.76919 14.8935 2.80514
148 1 14.1246 16.6614 3.33569
149 1 11.4669 3.06585 13.9752
150 1 11.9897 0.567677 4.28886
151 1 15.3484 13.0407 3.37285
152 1 12.076 5.98109 8.22945
153 1 2.04586 17.8897 4.24044
154 1 5.06178 7.93753 2.43828
155 1 9.85282 12.5806 9.9656
156 1 17.4951 4.99861 15.0189
157 1 8.18924 8.45317 16.6311
158 1 8.50852 12.3417 18.0211
159 1 17.2215 9.29594 12.0226
160 1 9.22522 10.7801 6.7077
161 1 1.46833 7.97923 6.84537
162 1 1.88461 17.916 6.74708
163 1 3.01097 7.08838 12.6568
164 1 9.60556 15.2863 0.326398
165 1 10.1416 11.471 16.4174
166 1 12.4516 1.78287 16.7953
167 1 4.26917 2.17099 9.1983
168 1 4.74993 1.20962 12.015
169 1 2.82053 7.36912 6.1953
170 1 1.48824 12.315 17.389
171 1 5.21848 13.1125 5.23295
172 1 12.7899 7.93053 7.61113
173 1 10.4517 16.5368 14.3182
174 1 15.669 15.7123 6.35832
175 1 10.7498 6.01825 17.4099
176 1 11.8812 7.2989 0.326749
177 1 15.2006 9.85242 3.10064
178 1 10.5343 15.0652 11.546
179 1 1.48922 6.51085 2.74628
180 1 12.2105 12.1091 10.3049
181 1 14.4504 4.62918 10.9252
182 1 15.1428 12.0483 8.92796
183 1 7.73166 4.12334 12.2162
184 1 4.53615 5.15273 1.45612
185 1 1.59473 12.5718 17.2254
186 1 16.819 7.83973 7.81861
187 1 10.5258 14.4647 4.62285
188 1 12.1398 7.53416 2.01014
189 1 2.93865 0.589297 2.18734
190 1 8.24516 0.741596 17.1576
191 1 18.0345 6.32838 4.32064
192 1 9.78209 10.5163 14.2561
193 1 4.76359 16.333 6.94789
194 1 0.590911 4.04148 17.6353
195 1 7.956 0.735877 5.22957
196 1 9.11583 3.00017 13.0551
197 1 8.60738 0.899927 4.32352
198 1 12.6561 11.4689 13.1065
199 1 10.4254 8.12201 0.308537
200 1 1.14307 4.62655 15.9472
ITEM: TIMESTEP
1
ITEM: NUMBER OF ATOMS
200
ITEM: BOX BOUNDS
0 18.155
0 18.155
0 18.155
ITEM: ATOMS
1 1 9.12864 14.4634 14.2573
2 1 10.0428 4.11074 2.48143
3 1 2.19147 0.940583 13.0671
4 1 14.4201 11.2938 17.2527
5 1 10.5748 5.22875 0.468244
6 1 13.9762 11.1987 9.92734
7 1 0.718751 17.7457 17.3441
8 1 13.0649 15.4868 11.1478
9 1 13.9095 2.31521 4.07801
10 1 16.0415 9.36313 1.95749
11 1 1.43947 13.1404 15.9727
12 1 15.6968 4.18859 7.89712
13 1 2.96352 12.5425 6.90881
14 1 8.47673 10.4486 4.88592
15 1 2.32894 7.07904 10.3695
16 1 8.18212 4.03968 0.904479
17 1 16.8933 10.5141 13.5541
18 1 8.38691 9.94546 1.76139
19 1 17.6521 14.1775 16.583
20 1 16.6975 5.89263 14.3239
21 1 17.6537 7.83048 12.1674
22 1 4.62009 3.92552 6.3326
23 1 14.8982 3.53126 13.0982
24 1 10.4162 9.93353 10.3063
25 1 11.1726 8.41541 4.2141
26 1 8.94492 3.13374 13.7719
27 1 11.6443 17.9013 3.9109
28 1 5.47826 10.1494 13.241
29 1 2.46744 11.7889 0.939125
30 1 11.4245 11.7487 15.9361
31 1 11.1769 17.6451 17.6259
32 1 14.6511 16.7061 0.10421
33 1 11.9312 12.0883 2.89098
34 1 1.38791 5.1154 8.47887
35 1 7.39217 17.099 6.60352
36 1 8.00721 16.4336 14.8352
37 1 17.4494 5.83867 13.1461
38 1 5.21206 4.96939 8.08562
39 1 3.13163 0.00673961 8.32993
40 1 15.6826 6.07859 3.79372
41 1 12.5566 2.79362 0.65782
42 1 11.7301 5.33541 1.46158
43 1 2.95389 12.2215 1.84105
44 1 14.33 10.7158 6.39446
45 1 14.4185 5.80748 4.78904
46 1 16.8939 0.508438 2.04676
47 1 10.1196 2.46334 3.5113
48 1 3.44514 5.28245 7.9139
49 1 3.35101 8.38061 17.0156
50 1 5.90835 9.33822 15.2203
51 1 15.3681 17.8678 10.2883
52 1 6.64751 8.85007 16.8404
53 1 12.2092 1.57647 12.3466
54 1 7.82036 7.50517 14.3617
55 1 4.77358 14.9302 2.31437
56 1 9.69829 18.0654 15.1976
57 1 4.76674 12.8837 1.14084
58 1 2.42666 6.32395 8.94594
59 1 6.61644 12.889 10.643
60 1 12.1073 2.8424 6.69045
61 1 7.3559 1.36228 17.9715
62 1 12.1427 6.79346 14.5001
63 1 1.65195 17.6476 3.44273
64 1 13.1578 17.0336 3.48703
65 1 15.4798 15.3577 1.3538
66 1 1.10891 15.3079 14.459
67 1 1.32954 8.5836 15.8807
68 1 4.9068 3.06663 2.68095
69 1 7.8679 14.0411 18.0167
70 1 16.3355 18.0547 12.5109
71 1 15.2027 12.7294 16.2339
72 1 17.3423 8.95936 4.05719
73 1 17.0411 7.53458 13.6369
74 1 1.23993 12.5789 3.55134
75 1 13.8617 14.3041 15.139
76 1 14.3987 17.5228 3.67377
77 1 1.12355 10.7779 13.0477
78 1 12.4855 12.243 8.48346
79 1 9.64497 12.7955 3.25702
80 1 0.680184 3.18581 2.77118
81 1 15.6057 12.2435 4.07125
82 1 2.24206 0.608623 13.5231
83 1 7.79899 1.13121 0.24025
84 1 5.14467 1.79145 11.614
85 1 13.3918 8.72221 13.6953
86 1 3.42253 10.8285 12.686
87 1 11.1503 13.2064 10.7728
88 1 17.3215 13.104 15.2624
89 1 15.0313 2.84658 8.66054
90 1 13.9867 16.6616 13.5956
91 1 14.3972 15.8939 7.32683
92 1 8.52294 17.5699 0.930989
93 1 8.31543 5.17853 0.589767
94 1 11.7324 3.58404 4.77028
95 1 10.6474 6.06605 0.0812846
96 1 13.8759 17.5046 15.1372
97 1 11.6389 6.7023 4.20468
98 1 7.43391 2.12996 7.73339
99 1 6.43478 17.8479 4.95092
100 1 13.7498 2.80857 17.8216
101 1 5.16928 2.629 0.552543
102 1 6.63437 1.5509 15.1423
103 1 1.00502 7.30449 8.71331
104 1 18.0005 4.0749 13.8189
105 1 1.00656 4.42213 8.99772
106 1 3.31328 15.1908 5.41033
107 1 8.82503 15.3165 16.1202
108 1 13.0401 11.1902 16.9899
109 1 8.39993 11.7924 15.3305
110 1 0.641376 6.97951 2.4395
111 1 18.0882 0.977721 14.6162
112 1 0.756074 7.65663 7.82708
113 1 3.73865 6.19241 15.2271
114 1 14.8856 16.8215 12.0501
115 1 6.30517 14.4652 8.804
116 1 9.26228 14.4316 3.28421
117 1 17.4478 12.8219 2.50916
118 1 4.29154 6.77601 0.327696
119 1 17.9511 4.19446 6.18114
120 1 17.934 17.1521 11.8656
121 1 11.4314 12.927 10.2138
122 1 11.9601 1.1861 10.138
123 1 7.54491 4.79038 13.7967
124 1 17.8814 7.02925 11.9095
125 1 6.09999 14.1479 12.8313
126 1 11.8009 6.33791 10.8419
127 1 17.2098 4.25366 5.60657
128 1 15.5418 1.65329 13.3114
129 1 9.19557 5.12226 8.86943
130 1 2.66564 17.7513 15.671
131 1 0.312871 17.1126 10.5575
132 1 15.4992 7.82914 4.9109
133 1 5.95756 10.3342 1.62616
134 1 15.2052 2.95804 3.55824
135 1 4.24003 13.2034 7.18679
136 1 5.11392 2.66629 11.6105
137 1 9.30996 12.7267 13.4484
138 1 3.52907 0.156163 1.45346
139 1 11.493 12.4633 2.29779
140 1 12.9352 4.17742 14.423
141 1 4.16503 15.4189 3.16346
142 1 16.7687 14.9327 3.51502
143 1 7.67056 11.0918 6.95098
144 1 7.70054 9.17044 12.8455
145 1 1.56411 4.46213 8.93275
146 1 2.15135 15.3496 0.16677
147 1 1.77595 14.8915 2.79428
148 1 14.1303 16.6155 3.32138
149 1 11.4143 3.04997 13.9835
150 1 12.0001 0.612252 4.29489
151 1 15.3439 13.0648 3.34045
152 1 12.078 5.96085 8.23472
153 1 2.06406 17.8984 4.28293
154 1 5.06407 7.9375 2.42839
155 1 9.81657 12.5739 9.96765
156 1 17.5135 4.97431 15.0556
157 1 8.24223 8.45461 16.6324
158 1 8.51424 12.3112 18.0311
159 1 17.224 9.33213 12.0247
160 1 9.27623 10.7724 6.70478
161 1 1.49835 7.97677 6.81016
162 1 1.85755 17.8998 6.72828
163 1 3.0183 7.08999 12.6741
164 1 9.63269 15.2849 0.31849
165 1 10.1083 11.4636 16.4284
166 1 12.4349 1.76792 16.7788
167 1 4.27538 2.17581 9.1925
168 1 4.72332 1.17635 12.0367
169 1 2.85922 7.34804 6.18904
170 1 1.47045 12.2769 17.4134
171 1 5.22571 13.1165 5.21306
172 1 12.8102 7.93837 7.62285
173 1 10.4617 16.5077 14.3109
174 1 15.695 15.6973 6.32576
175 1 10.7487 6.02049 17.3795
176 1 11.9336 7.30026 0.304074
177 1 15.18 9.87246 3.13754
178 1 10.5224 15.087 11.5425
179 1 1.53649 6.49435 2.76151
180 1 12.2306 12.0641 10.2982
181 1 14.4405 4.62955 10.9227
182 1 15.1765 12.0637 8.91911
183 1 7.74075 4.12525 12.1713
184 1 4.53075 5.12651 1.4766
185 1 1.61073 12.6117 17.1989
186 1 16.7827 7.84281 7.81804
187 1 10.5593 14.4768 4.6561
188 1 12.1413 7.54784 2.05386
189 1 2.91498 0.60968 2.22209
190 1 8.26088 0.731545 17.1229
191 1 18.0422 6.32186 4.34705
192 1 9.80173 10.489 14.2469
193 1 4.76056 16.3409 6.94684
194 1 0.57434 4.02579 17.6873
195 1 7.92817 0.729938 5.25032
196 1 9.13025 2.99348 13.0168
197 1 8.62791 0.901111 4.29984
198 1 12.6529 11.4771 13.1012
199 1 10.3846 8.14601 0.307082
200 1 1.17312 4.6377 15.9334
