ITEM: TIMESTEP
0
ITEM: NUMBER OF ATOMS
200
ITEM: BOX BOUNDS
0 18.155
0 18.155
0 18.155
ITEM: ATOMS
1 1 9.05939 3.52546 0.393785
2 1 11.012 5.15845 10.958
3 1 8.58672 2.36247 2.29502
4 1 17.608 17.2805 7.81034
5 1 1.89024 10.3942 7.28605
6 1 0.547535 15.7702 16.852
7 1 12.8447 13.8105 15.7673
8 1 7.54032 7.2004 6.20576
9 1 2.36533 6.56428 10.2251
10 1 14.6701 15.8309 9.71773
11 1 2.37913 12.6065 0.405275
12 1 0.204046 16.4392 7.17116
13 1 5.51326 0.902126 2.27294
14 1 14.601 15.7597 10.925
15 1 2.78739 7.07884 0.328385
16 1 6.10065 2.35229 2.4333
17 1 17.0114 11.7255 5.61941
18 1 9.45355 4.44853 4.89398
19 1 5.82998 14.6079 3.12018
20 1 0.189739 12.7277 16.1423
21 1 5.44476 7.6846 0.0895283
22 1 5.84899 1.84831 6.35545
23 1 5.02296 12.9664 10.0658
24 1 1.1854 16.3503 13.3369
25 1 17.9956 1.11917 8.19109
26 1 6.31376 3.0918 2.30642
27 1 0.375784 5.91243 3.44409
28 1 10.0354 1.94233 17.8436
29 1 4.27297 12.8496 12.517
30 1 12.7113 16.5108 10.0838
31 1 2.1482 10.7019 8.99136
32 1 1.08754 16.4058 2.42282
33 1 11.0845 1.66822 17.0428
34 1 12.1696 3.00885 0.0458677
35 1 2.05751 11.099 8.2814
36 1 13.739 7.51122 4.75996
37 1 0.621014 11.1354 2.09096
38 1 8.5639 1.83401 2.64393
39 1 13.9941 12.8979 16.8483
40 1 17.157 7.59822 17.5805
41 1 13.426 3.35474 14.0787
42 1 16.0512 16.3316 16.3044
43 1 11.2794 6.89657 10.9928
44 1 12.6071 16.9576 16.4869
45 1 1.68541 7.39536 3.82147
46 1 13.0352 8.20137 17.4534
47 1 3.84948 9.53007 14.1563
48 1 13.515 5.11308 17.0853
49 1 14.8128 16.9485 14.7782
50 1 11.0952 2.91098 0.101398
51 1 9.29847 4.18789 8.83045
52 1 4.43571 13.3671 4.67702
53 1 16.5155 12.8172 7.27752
54 1 13.4012 5.53768 8.21281
55 1 0.910487 9.24596 15.1341
56 1 6.731 3.45082 2.90377
57 1 5.98613 15.2006 16.2747
58 1 5.75304 14.246 7.49682
59 1 8.28205 9.23811 12.6793
60 1 9.64295 2.68407 11.6546
61 1 17.9439 16.6172 17.7741
62 1 15.7466 7.06938 8.74475
63 1 15.5764 10.5945 10.4162
64 1 15.2455 9.58439 5.2976
65 1 11.4673 6.80385 11.4104
66 1 8.40327 17.424 15.7713
67 1 8.80321 5.57471 4.26917
68 1 5.13528 8.41114 9.41144
69 1 0.31248 10.8363 4.56884
70 1 11.2389 15.5214 4.62234
71 1 7.25567 5.92101 2.40094
72 1 10.187 3.81681 0.24008
73 1 14.9005 12.2617 15.9906
74 1 6.73088 7.46206 5.83456
75 1 12.2556 0.411417 10.9315
76 1 11.1394 15.4969 4.83458
77 1 7.18434 15.6008 4.66926
78 1 1.44045 12.2766 16.2168
79 1 4.39889 12.0229 14.2163
80 1 7.58702 11.9298 6.8293
81 1 11.9992 3.31471 12.7589
82 1 3.68535 7.78343 3.74984
83 1 11.197 11.0559 14.0274
84 1 0.270966 11.0614 12.5894
85 1 8.58694 11.3574 0.905449
86 1 2.82872 11.0137 10.3494
87 1 5.01256 6.44458 14.775
88 1 15.1368 17.4641 8.69206
89 1 10.7781 3.94096 11.3171
90 1 16.8706 2.40362 0.066978
91 1 7.19806 3.84467 16.3893
92 1 15.7196 13.8245 13.0277
93 1 15.4026 0.898147 17.661
94 1 8.10275 0.125734 5.14752
95 1 17.977 0.739763 0.825798
96 1 7.68745 2.13138 3.58455
97 1 5.43863 0.457924 0.705787
98 1 15.5007 5.18341 11.8628
99 1 17.7863 8.15457 5.08046
100 1 15.1943 8.01584 12.9108
101 1 6.50222 10.2989 11.5499
102 1 5.92465 0.145233 5.91385
103 1 12.7674 7.84718 10.5316
104 1 11.373 0.697344 7.42914
105 1 4.91077 4.55464 5.73879
106 1 17.4293 9.95343 5.60128
107 1 9.06082 2.62355 17.0155
108 1 14.2779 8.85477 7.64788
109 1 11.7198 15.0542 10.4498
110 1 10.4646 15.5744 7.91068
111 1 0.260342 7.55545 8.52153
112 1 6.28797 7.40541 10.8516
113 1 0.23675 13.4224 13.156
114 1 1.55148 15.889 14.6851
115 1 12.6787 2.81508 1.59742
116 1 4.58294 6.64592 15.6905
117 1 0.143036 2.73208 15.8598
118 1 12.7708 17.7749 0.105164
119 1 12.6504 17.1018 1.77736
120 1 5.26194 16.6743 7.44864
121 1 5.6771 17.5 12.8462
122 1 8.98015 13.639 4.16725
123 1 12.9054 2.09569 2.95722
124 1 1.15585 10.7834 12.4179
125 1 5.45825 6.32874 4.91877
126 1 4.24468 14.658 8.7496
127 1 13.1525 12.773 13.2768
128 1 5.18784 11.9454 8.12575
129 1 2.23358 0.915395 12.8643
130 1 17.6964 10.804 3.23816
131 1 16.1012 16.2961 10.4652
132 1 12.0001 8.92309 3.47113
133 1 9.22686 6.35001 16.0513
134 1 15.5078 8.08 16.0513
135 1 2.53806 5.52505 7.61028
136 1 10.672 0.825455 9.64917
137 1 16.0266 11.735 4.23752
138 1 2.23597 12.613 13.4361
139 1 9.50243 7.53604 7.03477
140 1 0.846057 0.0570564 10.1679
141 1 13.0954 6.5554 4.19937
142 1 5.60448 11.2309 12.8871
143 1 9.87984 18.0882 16.8735
144 1 12.4018 3.41922 5.00879
145 1 10.878 1.41747 8.53548
146 1 11.0408 10.7299 16.6643
147 1 16.7783 12.8526 12.0356
148 1 12.0182 17.6393 0.636109
149 1 8.29777 9.54583 12.0967
150 1 4.86071 0.769285 14.191
151 1 11.7463 9.29367 7.63155
152 1 3.64952 12.0885 3.07121
153 1 5.17332 1.12059 15.1446
154 1 14.7245 18.0971 2.31616
155 1 11.0259 3.17404 17.8544
156 1 10.3743 2.75164 11.9769
157 1 5.13833 18.1116 13.5943
158 1 2.17406 0.0767715 4.02106
159 1 16.5766 3.80174 17.0789
160 1 0.549858 11.671 8.15965
161 1 7.71378 8.75925 2.94362
162 1 2.14902 12.4597 1.10306
163 1 12.138 7.70398 1.71809
164 1 16.3162 8.2892 16.908
165 1 11.526 16.8217 17.4132
166 1 9.86158 11.9414 13.6183
167 1 2.21455 4.49603 10.622
168 1 11.5468 11.3448 10.7647
169 1 6.47724 2.98706 6.35005
170 1 5.48253 9.3448 10.9855
171 1 9.08827 15.6244 17.5575
172 1 16.9834 6.43526 1.18908
173 1 8.9452 12.3591 3.91583
174 1 7.99282 16.5879 7.28837
175 1 9.76232 0.642296 7.48964
176 1 2.0475 8.98431 7.46714
177 1 15.6988 13.5895 15.6067
178 1 11.5963 9.36007 0.68549
179 1 17.2264 10.2444 9.35675
180 1 4.11519 13.8688 11.2707
181 1 10.3129 17.9338 3.78815
182 1 11.8803 17.8833 1.00083
183 1 7.1457 10.8837 9.33208
184 1 15.3657 0.877262 4.4743
185 1 16.0745 6.78004 7.04435
186 1 17.1807 2.18678 10.6593
187 1 11.6933 14.3878 11.7853
188 1 2.23486 9.76877 16.2292
189 1 0.672599 9.30946 11.8362
190 1 5.67723 17.2552 5.43443
191 1 12.1984 16.2165 3.02706
192 1 6.70511 7.11556 12.1136
193 1 9.36892 2.98228 11.753
194 1 8.46399 18.0157 16.4801
195 1 13.9289 1.31102 1.8042
196 1 13.3718 1.82756 11.2859
197 1 0.0128907 7.91694 16.5633
198 1 3.67953 5.015 8.43435
199 1 17.2273 12.2514 14.9068
200 1 15.2381 4.76473 5.76965
ITEM: TIMESTEP
1
ITEM: NUMBER OF ATOMS
200
ITEM: BOX BOUNDS
0 18.155
0 18.155
0 18.155
ITEM: ATOMS
1 1 9.01609 3.51311 0.385169
2 1 11.0244 5.19629 10.9461
3 1 8.59599 2.39598 2.28251
4 1 17.5828 17.3045 7.82042
5 1 1.88138 10.3628 7.23237
6 1 0.560918 15.7544 16.8184
7 1 12.8175 13.8371 15.7389
8 1 7.57601 7.19794 6.20728
9 1 2.3542 6.59046 10.2301
10 1 14.6664 15.8381 9.66974
11 1 2.37217 12.6093 0.366253
12 1 0.220824 16.4096 7.15319
13 1 5.48343 0.867866 2.2817
14 1 14.5955 15.7424 10.9684
15 1 2.78358 7.08028 0.340151
16 1 6.10682 2.30427 2.4382
17 1 17.0273 11.7401 5.64753
18 1 9.47524 4.41107 4.91281
19 1 5.83737 14.6039 3.10853
20 1 0.148986 12.7436 16.1435
21 1 5.43475 7.69305 0.0998888
22 1 5.83446 1.81682 6.36348
23 1 5.04624 12.9399 10.0569
24 1 1.17797 16.3618 13.3116
25 1 17.994 1.15302 8.18648
26 1 6.30582 3.12196 2.28237
27 1 0.338556 5.89263 3.44616
28 1 10.0034 1.93371 17.886
29 1 4.27408 12.8282 12.5461
30 1 12.7276 16.5485 10.0716
31 1 2.149 10.683 9.01667
32 1 1.09159 16.3874 2.42088
33 1 11.119 1.64388 17.0308
34 1 12.216 3.00023 0.0383339
35 1 2.038 11.1147 8.22785
36 1 13.7522 7.53516 4.76746
37 1 0.637464 11.1488 2.06754
38 1 8.56655 1.79921 2.66047
39 1 13.9771 12.9262 16.8749
40 1 17.1793 7.58025 17.6079
41 1 13.4534 3.35221 14.098
42 1 16.0849 16.3301 16.3296
43 1 11.2577 6.895 10.9681
44 1 12.6517 16.9652 16.4601
45 1 1.68767 7.42143 3.81808
46 1 13.0547 8.17609 17.457
47 1 3.83164 9.53695 14.161
48 1 13.5103 5.11679 17.0928
49 1 14.7962 16.9445 14.746
50 1 11.0922 2.90336 0.133966
51 1 9.30649 4.18835 8.82257
52 1 4.41209 13.3857 4.69191
53 1 16.5023 12.8282 7.29267
54 1 13.3826 5.53701 8.21756
55 1 0.884163 9.23232 15.1001
56 1 6.74026 3.47192 2.93317
57 1 5.98465 15.2074 16.2532
58 1 5.78174 14.2335 7.47534
59 1 8.27772 9.21878 12.7183
60 1 9.66934 2.65389 11.6571
61 1 17.9112 16.6307 17.8008
62 1 15.7454 7.06987 8.79084
63 1 15.5514 10.5993 10.4193
64 1 15.2287 9.56744 5.29406
65 1 11.4891 6.79719 11.4645
66 1 8.40024 17.4097 15.7337
67 1 8.79734 5.60422 4.25855
68 1 5.12894 8.40512 9.37785
69 1 0.341934 10.8508 4.59274
70 1 11.2423 15.5259 4.58895
71 1 7.25575 5.92596 2.39163
72 1 10.1838 3.86415 0.252063
73 1 14.933 12.2402 15.9725
74 1 6.7003 7.46895 5.82602
75 1 12.2531 0.380161 10.9224
76 1 11.1278 15.4904 4.88702
77 1 7.21017 15.5955 4.67163
78 1 1.48653 12.2752 16.2183
79 1 4.3841 12.0289 14.2551
80 1 7.59524 11.9206 6.82623
81 1 12.0488 3.32931 12.7638
82 1 3.73409 7.79125 3.7623
83 1 11.2421 11.0325 14.0354
84 1 0.235935 11.0582 12.5918
85 1 8.58131 11.3464 0.910584
86 1 2.83537 11.0304 10.3921
87 1 5.02299 6.45122 14.7321
88 1 15.1511 17.4892 8.66655
89 1 10.796 3.89245 11.3078
90 1 16.8898 2.38452 0.103865
91 1 7.17838 3.84555 16.3867
92 1 15.7071 13.8488 13.0542
93 1 15.3924 0.89032 17.6663
94 1 8.11373 0.124052 5.16351
95 1 17.9779 0.732141 0.836763
96 1 7.65546 2.14561 3.60929
97 1 5.43041 0.443235 0.665682
98 1 15.4863 5.18622 11.8675
99 1 17.7929 8.10483 5.06474
100 1 15.1997 7.99894 12.9071
101 1 6.52636 10.3233 11.5521
102 1 5.93229 0.184717 5.93161
103 1 12.8013 7.8685 10.5141
104 1 11.3978 0.678591 7.39767
105 1 4.8965 4.52399 5.73173
106 1 17.3992 9.92699 5.62571
107 1 9.03711 2.64676 16.989
108 1 14.2576 8.85637 7.64122
109 1 11.7177 15.0639 10.4159
110 1 10.4721 15.5869 7.89874
111 1 0.265523 7.54809 8.52675
112 1 6.28134 7.41329 10.8064
113 1 0.263008 13.4401 13.171
114 1 1.57924 15.8782 14.726
115 1 12.6913 2.85422 1.58734
116 1 4.57292 6.64973 15.7245
117 1 0.163855 2.72998 15.8509
118 1 12.8022 17.7745 0.0861131
119 1 12.6772 17.0849 1.79899
120 1 5.26474 16.6792 7.46427
121 1 5.69695 17.4791 12.8281
122 1 8.98333 13.6749 4.16824
123 1 12.894 2.09033 3.00886
124 1 1.2047 10.7916 12.4096
125 1 5.43878 6.33846 4.8861
126 1 4.20684 14.6754 8.75457
127 1 13.1521 12.7789 13.2742
128 1 5.20034 11.9342 8.11766
129 1 2.21646 0.920086 12.8684
130 1 17.6425 10.8083 3.21706
131 1 16.1474 16.3072 10.4684
132 1 11.9967 8.93856 3.47381
133 1 9.22606 6.34028 16.042
134 1 15.485 8.07693 16.0132
135 1 2.50279 5.537 7.58973
136 1 10.6587 0.803272 9.68774
137 1 16.0122 11.7351 4.20773
138 1 2.24853 12.605 13.4671
139 1 9.53247 7.53523 7.04703
140 1 0.843909 0.0569999 10.1848
141 1 13.0866 6.52739 4.1772
142 1 5.59561 11.2364 12.9106
143 1 9.91799 18.0823 16.8949
144 1 12.4061 3.43093 5.00351
145 1 10.88 1.44693 8.50759
146 1 11.0324 10.7314 16.6505
147 1 16.7825 12.8286 12.0077
148 1 12.0204 17.6317 0.589255
149 1 8.30434 9.5666 12.053
150 1 4.82183 0.794316 14.1773
151 1 11.7358 9.30856 7.62712
152 1 3.64971 12.0771 3.07597
153 1 5.18832 1.13126 15.186
154 1 14.7355 18.065 2.33371
155 1 11.0248 3.18999 17.8183
156 1 10.4056 2.7529 11.9818
157 1 5.13376 18.0695 13.5827
158 1 2.16156 0.0880659 4.03302
159 1 16.5625 3.81418 17.0539
160 1 0.513049 11.6833 8.14698
161 1 7.70912 8.76074 2.93912
162 1 2.13077 12.4592 1.13956
163 1 12.1528 7.68138 1.71548
164 1 16.3402 8.31865 16.9313
165 1 11.4935 16.8108 17.4302
166 1 9.83767 11.9595 13.6155
167 1 2.218 4.49451 10.6271
168 1 11.5448 11.3503 10.7603
169 1 6.49406 3.02596 6.34159
170 1 5.45993 9.31842 10.9741
171 1 9.09046 15.604 17.5544
172 1 16.9746 6.42672 1.20314
173 1 8.94552 12.3264 3.90063
174 1 7.98733 16.5979 7.29084
175 1 9.72432 0.63457 7.46639
176 1 2.05272 8.93816 7.47334
177 1 15.7105 13.6205 15.6002
178 1 11.587 9.37679 0.683919
179 1 17.2537 10.2162 9.34229
180 1 4.11617 13.9048 11.2603
181 1 10.3285 17.9329 3.78585
182 1 11.8517 17.8857 1.0355
183 1 7.16048 10.8767 9.32808
184 1 15.3621 0.888223 4.48104
185 1 16.0783 6.77498 7.01016
186 1 17.1709 2.19133 10.6698
187 1 11.6908 14.3738 11.8148
188 1 2.26091 9.76472 16.2514
189 1 0.673112 9.26947 11.8244
190 1 5.67049 17.2098 5.42367
191 1 12.1856 16.1964 3.06226
192 1 6.72126 7.0977 12.154
193 1 9.34336 3.00169 11.7611
194 1 8.48294 18.0338 16.5191
195 1 13.9218 1.33235 1.76797
196 1 13.3979 1.85367 11.2929
197 1 0.0426535 7.91886 16.5378
198 1 3.71956 5.00057 8.46023
199 1 17.1902 12.242 14.8869
200 1 15.2537 4.75449 5.77261
